V -t * -v 1.0a5 -a 0
A -t * -n 1 -p 0 -o 0x7fffffff -c 30 -a 1
A -t * -h 1 -m 1073741823 -s 0
n -t * -a 4 -s 4 -S UP -v circle -c black -i black
n -t * -a 0 -s 0 -S UP -v circle -c black -i black
n -t * -a 1 -s 1 -S UP -v circle -c black -i black
n -t * -a 2 -s 2 -S UP -v circle -c black -i black
n -t * -a 3 -s 3 -S UP -v circle -c black -i black
l -t * -s 2 -d 0 -S UP -r 12000000 -D 0.10000000000000001 -c black
l -t * -s 3 -d 0 -S UP -r 12000000 -D 0.10000000000000001 -c black
l -t * -s 4 -d 0 -S UP -r 12000000 -D 0.10000000000000001 -c black
l -t * -s 0 -d 1 -S UP -r 12000000 -D 0.10000000000000001 -c black
+ -t 0.1 -s 2 -d 0 -p cbr -e 1000 -c 0 -i 0 -a 0 -x {2.0 1.0 0 ------- null}
- -t 0.1 -s 2 -d 0 -p cbr -e 1000 -c 0 -i 0 -a 0 -x {2.0 1.0 0 ------- null}
h -t 0.1 -s 2 -d 0 -p cbr -e 1000 -c 0 -i 0 -a 0 -x {2.0 1.0 -1 ------- null}
+ -t 0.1 -s 2 -d 0 -p cbr -e 1000 -c 0 -i 1 -a 0 -x {2.0 1.0 1 ------- null}
+ -t 0.1 -s 2 -d 0 -p cbr -e 1000 -c 0 -i 2 -a 0 -x {2.0 1.0 2 ------- null}
+ -t 0.1 -s 2 -d 0 -p cbr -e 1000 -c 0 -i 3 -a 0 -x {2.0 1.0 3 ------- null}
+ -t 0.1 -s 2 -d 0 -p cbr -e 1000 -c 0 -i 4 -a 0 -x {2.0 1.0 4 ------- null}
+ -t 0.1 -s 2 -d 0 -p cbr -e 1000 -c 0 -i 5 -a 0 -x {2.0 1.0 5 ------- null}
+ -t 0.1 -s 2 -d 0 -p cbr -e 1000 -c 0 -i 6 -a 0 -x {2.0 1.0 6 ------- null}
+ -t 0.1 -s 3 -d 0 -p cbr -e 1000 -c 0 -i 7 -a 0 -x {3.0 1.0 0 ------- null}
- -t 0.1 -s 3 -d 0 -p cbr -e 1000 -c 0 -i 7 -a 0 -x {3.0 1.0 0 ------- null}
h -t 0.1 -s 3 -d 0 -p cbr -e 1000 -c 0 -i 7 -a 0 -x {3.0 1.0 -1 ------- null}
+ -t 0.1 -s 3 -d 0 -p cbr -e 1000 -c 0 -i 8 -a 0 -x {3.0 1.0 1 ------- null}
+ -t 0.1 -s 3 -d 0 -p cbr -e 1000 -c 0 -i 9 -a 0 -x {3.0 1.0 2 ------- null}
+ -t 0.1 -s 3 -d 0 -p cbr -e 1000 -c 0 -i 10 -a 0 -x {3.0 1.0 3 ------- null}
- -t 0.100666666666667 -s 2 -d 0 -p cbr -e 1000 -c 0 -i 1 -a 0 -x {2.0 1.0 1 ------- null}
h -t 0.100666666666667 -s 2 -d 0 -p cbr -e 1000 -c 0 -i 1 -a 0 -x {2.0 1.0 -1 ------- null}
- -t 0.100666666666667 -s 3 -d 0 -p cbr -e 1000 -c 0 -i 8 -a 0 -x {3.0 1.0 1 ------- null}
h -t 0.100666666666667 -s 3 -d 0 -p cbr -e 1000 -c 0 -i 8 -a 0 -x {3.0 1.0 -1 ------- null}
- -t 0.101333333333333 -s 2 -d 0 -p cbr -e 1000 -c 0 -i 2 -a 0 -x {2.0 1.0 2 ------- null}
h -t 0.101333333333333 -s 2 -d 0 -p cbr -e 1000 -c 0 -i 2 -a 0 -x {2.0 1.0 -1 ------- null}
- -t 0.101333333333333 -s 3 -d 0 -p cbr -e 1000 -c 0 -i 9 -a 0 -x {3.0 1.0 2 ------- null}
h -t 0.101333333333333 -s 3 -d 0 -p cbr -e 1000 -c 0 -i 9 -a 0 -x {3.0 1.0 -1 ------- null}
- -t 0.102 -s 2 -d 0 -p cbr -e 1000 -c 0 -i 3 -a 0 -x {2.0 1.0 3 ------- null}
h -t 0.102 -s 2 -d 0 -p cbr -e 1000 -c 0 -i 3 -a 0 -x {2.0 1.0 -1 ------- null}
- -t 0.102 -s 3 -d 0 -p cbr -e 1000 -c 0 -i 10 -a 0 -x {3.0 1.0 3 ------- null}
h -t 0.102 -s 3 -d 0 -p cbr -e 1000 -c 0 -i 10 -a 0 -x {3.0 1.0 -1 ------- null}
- -t 0.102666666666667 -s 2 -d 0 -p cbr -e 1000 -c 0 -i 4 -a 0 -x {2.0 1.0 4 ------- null}
h -t 0.102666666666667 -s 2 -d 0 -p cbr -e 1000 -c 0 -i 4 -a 0 -x {2.0 1.0 -1 ------- null}
- -t 0.103333333333333 -s 2 -d 0 -p cbr -e 1000 -c 0 -i 5 -a 0 -x {2.0 1.0 5 ------- null}
h -t 0.103333333333333 -s 2 -d 0 -p cbr -e 1000 -c 0 -i 5 -a 0 -x {2.0 1.0 -1 ------- null}
- -t 0.104 -s 2 -d 0 -p cbr -e 1000 -c 0 -i 6 -a 0 -x {2.0 1.0 6 ------- null}
h -t 0.104 -s 2 -d 0 -p cbr -e 1000 -c 0 -i 6 -a 0 -x {2.0 1.0 -1 ------- null}
+ -t 0.153333333333333 -s 3 -d 0 -p cbr -e 1000 -c 0 -i 11 -a 0 -x {3.0 1.0 4 ------- null}
- -t 0.153333333333333 -s 3 -d 0 -p cbr -e 1000 -c 0 -i 11 -a 0 -x {3.0 1.0 4 ------- null}
h -t 0.153333333333333 -s 3 -d 0 -p cbr -e 1000 -c 0 -i 11 -a 0 -x {3.0 1.0 -1 ------- null}
+ -t 0.153333333333333 -s 3 -d 0 -p cbr -e 1000 -c 0 -i 12 -a 0 -x {3.0 1.0 5 ------- null}
+ -t 0.153333333333333 -s 3 -d 0 -p cbr -e 1000 -c 0 -i 13 -a 0 -x {3.0 1.0 6 ------- null}
+ -t 0.153333333333333 -s 3 -d 0 -p cbr -e 1000 -c 0 -i 14 -a 0 -x {3.0 1.0 7 ------- null}
- -t 0.154 -s 3 -d 0 -p cbr -e 1000 -c 0 -i 12 -a 0 -x {3.0 1.0 5 ------- null}
h -t 0.154 -s 3 -d 0 -p cbr -e 1000 -c 0 -i 12 -a 0 -x {3.0 1.0 -1 ------- null}
- -t 0.154666666666667 -s 3 -d 0 -p cbr -e 1000 -c 0 -i 13 -a 0 -x {3.0 1.0 6 ------- null}
h -t 0.154666666666667 -s 3 -d 0 -p cbr -e 1000 -c 0 -i 13 -a 0 -x {3.0 1.0 -1 ------- null}
- -t 0.155333333333333 -s 3 -d 0 -p cbr -e 1000 -c 0 -i 14 -a 0 -x {3.0 1.0 7 ------- null}
h -t 0.155333333333333 -s 3 -d 0 -p cbr -e 1000 -c 0 -i 14 -a 0 -x {3.0 1.0 -1 ------- null}
r -t 0.200666666666667 -s 2 -d 0 -p cbr -e 1000 -c 0 -i 0 -a 0 -x {2.0 1.0 0 ------- null}
+ -t 0.200666666666667 -s 0 -d 1 -p cbr -e 1000 -c 0 -i 0 -a 0 -x {2.0 1.0 0 ------- null}
- -t 0.200666666666667 -s 0 -d 1 -p cbr -e 1000 -c 0 -i 0 -a 0 -x {2.0 1.0 0 ------- null}
h -t 0.200666666666667 -s 0 -d 1 -p cbr -e 1000 -c 0 -i 0 -a 0 -x {2.0 1.0 -1 ------- null}
r -t 0.200666666666667 -s 3 -d 0 -p cbr -e 1000 -c 0 -i 7 -a 0 -x {3.0 1.0 0 ------- null}
+ -t 0.200666666666667 -s 0 -d 1 -p cbr -e 1000 -c 0 -i 7 -a 0 -x {3.0 1.0 0 ------- null}
r -t 0.201333333333333 -s 2 -d 0 -p cbr -e 1000 -c 0 -i 1 -a 0 -x {2.0 1.0 1 ------- null}
+ -t 0.201333333333333 -s 0 -d 1 -p cbr -e 1000 -c 0 -i 1 -a 0 -x {2.0 1.0 1 ------- null}
r -t 0.201333333333333 -s 3 -d 0 -p cbr -e 1000 -c 0 -i 8 -a 0 -x {3.0 1.0 1 ------- null}
+ -t 0.201333333333333 -s 0 -d 1 -p cbr -e 1000 -c 0 -i 8 -a 0 -x {3.0 1.0 1 ------- null}
- -t 0.201333333333333 -s 0 -d 1 -p cbr -e 1000 -c 0 -i 7 -a 0 -x {3.0 1.0 0 ------- null}
h -t 0.201333333333333 -s 0 -d 1 -p cbr -e 1000 -c 0 -i 7 -a 0 -x {3.0 1.0 -1 ------- null}
r -t 0.202 -s 2 -d 0 -p cbr -e 1000 -c 0 -i 2 -a 0 -x {2.0 1.0 2 ------- null}
+ -t 0.202 -s 0 -d 1 -p cbr -e 1000 -c 0 -i 2 -a 0 -x {2.0 1.0 2 ------- null}
r -t 0.202 -s 3 -d 0 -p cbr -e 1000 -c 0 -i 9 -a 0 -x {3.0 1.0 2 ------- null}
+ -t 0.202 -s 0 -d 1 -p cbr -e 1000 -c 0 -i 9 -a 0 -x {3.0 1.0 2 ------- null}
- -t 0.202 -s 0 -d 1 -p cbr -e 1000 -c 0 -i 1 -a 0 -x {2.0 1.0 1 ------- null}
h -t 0.202 -s 0 -d 1 -p cbr -e 1000 -c 0 -i 1 -a 0 -x {2.0 1.0 -1 ------- null}
r -t 0.202666666666667 -s 2 -d 0 -p cbr -e 1000 -c 0 -i 3 -a 0 -x {2.0 1.0 3 ------- null}
+ -t 0.202666666666667 -s 0 -d 1 -p cbr -e 1000 -c 0 -i 3 -a 0 -x {2.0 1.0 3 ------- null}
r -t 0.202666666666667 -s 3 -d 0 -p cbr -e 1000 -c 0 -i 10 -a 0 -x {3.0 1.0 3 ------- null}
+ -t 0.202666666666667 -s 0 -d 1 -p cbr -e 1000 -c 0 -i 10 -a 0 -x {3.0 1.0 3 ------- null}
- -t 0.202666666666667 -s 0 -d 1 -p cbr -e 1000 -c 0 -i 8 -a 0 -x {3.0 1.0 1 ------- null}
h -t 0.202666666666667 -s 0 -d 1 -p cbr -e 1000 -c 0 -i 8 -a 0 -x {3.0 1.0 -1 ------- null}
r -t 0.203333333333333 -s 2 -d 0 -p cbr -e 1000 -c 0 -i 4 -a 0 -x {2.0 1.0 4 ------- null}
+ -t 0.203333333333333 -s 0 -d 1 -p cbr -e 1000 -c 0 -i 4 -a 0 -x {2.0 1.0 4 ------- null}
- -t 0.203333333333333 -s 0 -d 1 -p cbr -e 1000 -c 0 -i 2 -a 0 -x {2.0 1.0 2 ------- null}
h -t 0.203333333333333 -s 0 -d 1 -p cbr -e 1000 -c 0 -i 2 -a 0 -x {2.0 1.0 -1 ------- null}
r -t 0.204 -s 2 -d 0 -p cbr -e 1000 -c 0 -i 5 -a 0 -x {2.0 1.0 5 ------- null}
+ -t 0.204 -s 0 -d 1 -p cbr -e 1000 -c 0 -i 5 -a 0 -x {2.0 1.0 5 ------- null}
- -t 0.204 -s 0 -d 1 -p cbr -e 1000 -c 0 -i 9 -a 0 -x {3.0 1.0 2 ------- null}
h -t 0.204 -s 0 -d 1 -p cbr -e 1000 -c 0 -i 9 -a 0 -x {3.0 1.0 -1 ------- null}
r -t 0.204666666666667 -s 2 -d 0 -p cbr -e 1000 -c 0 -i 6 -a 0 -x {2.0 1.0 6 ------- null}
+ -t 0.204666666666667 -s 0 -d 1 -p cbr -e 1000 -c 0 -i 6 -a 0 -x {2.0 1.0 6 ------- null}
- -t 0.204666666666667 -s 0 -d 1 -p cbr -e 1000 -c 0 -i 3 -a 0 -x {2.0 1.0 3 ------- null}
h -t 0.204666666666667 -s 0 -d 1 -p cbr -e 1000 -c 0 -i 3 -a 0 -x {2.0 1.0 -1 ------- null}
- -t 0.205333333333333 -s 0 -d 1 -p cbr -e 1000 -c 0 -i 10 -a 0 -x {3.0 1.0 3 ------- null}
h -t 0.205333333333333 -s 0 -d 1 -p cbr -e 1000 -c 0 -i 10 -a 0 -x {3.0 1.0 -1 ------- null}
- -t 0.206 -s 0 -d 1 -p cbr -e 1000 -c 0 -i 4 -a 0 -x {2.0 1.0 4 ------- null}
h -t 0.206 -s 0 -d 1 -p cbr -e 1000 -c 0 -i 4 -a 0 -x {2.0 1.0 -1 ------- null}
+ -t 0.206666666666667 -s 3 -d 0 -p cbr -e 1000 -c 0 -i 15 -a 0 -x {3.0 1.0 8 ------- null}
- -t 0.206666666666667 -s 3 -d 0 -p cbr -e 1000 -c 0 -i 15 -a 0 -x {3.0 1.0 8 ------- null}
h -t 0.206666666666667 -s 3 -d 0 -p cbr -e 1000 -c 0 -i 15 -a 0 -x {3.0 1.0 -1 ------- null}
+ -t 0.206666666666667 -s 3 -d 0 -p cbr -e 1000 -c 0 -i 16 -a 0 -x {3.0 1.0 9 ------- null}
+ -t 0.206666666666667 -s 3 -d 0 -p cbr -e 1000 -c 0 -i 17 -a 0 -x {3.0 1.0 10 ------- null}
+ -t 0.206666666666667 -s 3 -d 0 -p cbr -e 1000 -c 0 -i 18 -a 0 -x {3.0 1.0 11 ------- null}
- -t 0.206666666666667 -s 0 -d 1 -p cbr -e 1000 -c 0 -i 5 -a 0 -x {2.0 1.0 5 ------- null}
h -t 0.206666666666667 -s 0 -d 1 -p cbr -e 1000 -c 0 -i 5 -a 0 -x {2.0 1.0 -1 ------- null}
- -t 0.207333333333333 -s 3 -d 0 -p cbr -e 1000 -c 0 -i 16 -a 0 -x {3.0 1.0 9 ------- null}
h -t 0.207333333333333 -s 3 -d 0 -p cbr -e 1000 -c 0 -i 16 -a 0 -x {3.0 1.0 -1 ------- null}
- -t 0.207333333333333 -s 0 -d 1 -p cbr -e 1000 -c 0 -i 6 -a 0 -x {2.0 1.0 6 ------- null}
h -t 0.207333333333333 -s 0 -d 1 -p cbr -e 1000 -c 0 -i 6 -a 0 -x {2.0 1.0 -1 ------- null}
- -t 0.208 -s 3 -d 0 -p cbr -e 1000 -c 0 -i 17 -a 0 -x {3.0 1.0 10 ------- null}
h -t 0.208 -s 3 -d 0 -p cbr -e 1000 -c 0 -i 17 -a 0 -x {3.0 1.0 -1 ------- null}
- -t 0.208666666666667 -s 3 -d 0 -p cbr -e 1000 -c 0 -i 18 -a 0 -x {3.0 1.0 11 ------- null}
h -t 0.208666666666667 -s 3 -d 0 -p cbr -e 1000 -c 0 -i 18 -a 0 -x {3.0 1.0 -1 ------- null}
+ -t 0.24 -s 2 -d 0 -p cbr -e 1000 -c 0 -i 19 -a 0 -x {2.0 1.0 7 ------- null}
- -t 0.24 -s 2 -d 0 -p cbr -e 1000 -c 0 -i 19 -a 0 -x {2.0 1.0 7 ------- null}
h -t 0.24 -s 2 -d 0 -p cbr -e 1000 -c 0 -i 19 -a 0 -x {2.0 1.0 -1 ------- null}
+ -t 0.24 -s 2 -d 0 -p cbr -e 1000 -c 0 -i 20 -a 0 -x {2.0 1.0 8 ------- null}
+ -t 0.24 -s 2 -d 0 -p cbr -e 1000 -c 0 -i 21 -a 0 -x {2.0 1.0 9 ------- null}
+ -t 0.24 -s 2 -d 0 -p cbr -e 1000 -c 0 -i 22 -a 0 -x {2.0 1.0 10 ------- null}
+ -t 0.24 -s 2 -d 0 -p cbr -e 1000 -c 0 -i 23 -a 0 -x {2.0 1.0 11 ------- null}
+ -t 0.24 -s 2 -d 0 -p cbr -e 1000 -c 0 -i 24 -a 0 -x {2.0 1.0 12 ------- null}
+ -t 0.24 -s 2 -d 0 -p cbr -e 1000 -c 0 -i 25 -a 0 -x {2.0 1.0 13 ------- null}
- -t 0.240666666666667 -s 2 -d 0 -p cbr -e 1000 -c 0 -i 20 -a 0 -x {2.0 1.0 8 ------- null}
h -t 0.240666666666667 -s 2 -d 0 -p cbr -e 1000 -c 0 -i 20 -a 0 -x {2.0 1.0 -1 ------- null}
- -t 0.241333333333333 -s 2 -d 0 -p cbr -e 1000 -c 0 -i 21 -a 0 -x {2.0 1.0 9 ------- null}
h -t 0.241333333333333 -s 2 -d 0 -p cbr -e 1000 -c 0 -i 21 -a 0 -x {2.0 1.0 -1 ------- null}
- -t 0.242 -s 2 -d 0 -p cbr -e 1000 -c 0 -i 22 -a 0 -x {2.0 1.0 10 ------- null}
h -t 0.242 -s 2 -d 0 -p cbr -e 1000 -c 0 -i 22 -a 0 -x {2.0 1.0 -1 ------- null}
- -t 0.242666666666667 -s 2 -d 0 -p cbr -e 1000 -c 0 -i 23 -a 0 -x {2.0 1.0 11 ------- null}
h -t 0.242666666666667 -s 2 -d 0 -p cbr -e 1000 -c 0 -i 23 -a 0 -x {2.0 1.0 -1 ------- null}
- -t 0.243333333333333 -s 2 -d 0 -p cbr -e 1000 -c 0 -i 24 -a 0 -x {2.0 1.0 12 ------- null}
h -t 0.243333333333333 -s 2 -d 0 -p cbr -e 1000 -c 0 -i 24 -a 0 -x {2.0 1.0 -1 ------- null}
- -t 0.244 -s 2 -d 0 -p cbr -e 1000 -c 0 -i 25 -a 0 -x {2.0 1.0 13 ------- null}
h -t 0.244 -s 2 -d 0 -p cbr -e 1000 -c 0 -i 25 -a 0 -x {2.0 1.0 -1 ------- null}
r -t 0.254 -s 3 -d 0 -p cbr -e 1000 -c 0 -i 11 -a 0 -x {3.0 1.0 4 ------- null}
+ -t 0.254 -s 0 -d 1 -p cbr -e 1000 -c 0 -i 11 -a 0 -x {3.0 1.0 4 ------- null}
- -t 0.254 -s 0 -d 1 -p cbr -e 1000 -c 0 -i 11 -a 0 -x {3.0 1.0 4 ------- null}
h -t 0.254 -s 0 -d 1 -p cbr -e 1000 -c 0 -i 11 -a 0 -x {3.0 1.0 -1 ------- null}
r -t 0.254666666666667 -s 3 -d 0 -p cbr -e 1000 -c 0 -i 12 -a 0 -x {3.0 1.0 5 ------- null}
+ -t 0.254666666666667 -s 0 -d 1 -p cbr -e 1000 -c 0 -i 12 -a 0 -x {3.0 1.0 5 ------- null}
- -t 0.254666666666667 -s 0 -d 1 -p cbr -e 1000 -c 0 -i 12 -a 0 -x {3.0 1.0 5 ------- null}
h -t 0.254666666666667 -s 0 -d 1 -p cbr -e 1000 -c 0 -i 12 -a 0 -x {3.0 1.0 -1 ------- null}
r -t 0.255333333333333 -s 3 -d 0 -p cbr -e 1000 -c 0 -i 13 -a 0 -x {3.0 1.0 6 ------- null}
+ -t 0.255333333333333 -s 0 -d 1 -p cbr -e 1000 -c 0 -i 13 -a 0 -x {3.0 1.0 6 ------- null}
- -t 0.255333333333333 -s 0 -d 1 -p cbr -e 1000 -c 0 -i 13 -a 0 -x {3.0 1.0 6 ------- null}
h -t 0.255333333333333 -s 0 -d 1 -p cbr -e 1000 -c 0 -i 13 -a 0 -x {3.0 1.0 -1 ------- null}
r -t 0.256 -s 3 -d 0 -p cbr -e 1000 -c 0 -i 14 -a 0 -x {3.0 1.0 7 ------- null}
+ -t 0.256 -s 0 -d 1 -p cbr -e 1000 -c 0 -i 14 -a 0 -x {3.0 1.0 7 ------- null}
- -t 0.256 -s 0 -d 1 -p cbr -e 1000 -c 0 -i 14 -a 0 -x {3.0 1.0 7 ------- null}
h -t 0.256 -s 0 -d 1 -p cbr -e 1000 -c 0 -i 14 -a 0 -x {3.0 1.0 -1 ------- null}
+ -t 0.26 -s 3 -d 0 -p cbr -e 1000 -c 0 -i 26 -a 0 -x {3.0 1.0 12 ------- null}
- -t 0.26 -s 3 -d 0 -p cbr -e 1000 -c 0 -i 26 -a 0 -x {3.0 1.0 12 ------- null}
h -t 0.26 -s 3 -d 0 -p cbr -e 1000 -c 0 -i 26 -a 0 -x {3.0 1.0 -1 ------- null}
+ -t 0.26 -s 3 -d 0 -p cbr -e 1000 -c 0 -i 27 -a 0 -x {3.0 1.0 13 ------- null}
+ -t 0.26 -s 3 -d 0 -p cbr -e 1000 -c 0 -i 28 -a 0 -x {3.0 1.0 14 ------- null}
+ -t 0.26 -s 3 -d 0 -p cbr -e 1000 -c 0 -i 29 -a 0 -x {3.0 1.0 15 ------- null}
- -t 0.260666666666667 -s 3 -d 0 -p cbr -e 1000 -c 0 -i 27 -a 0 -x {3.0 1.0 13 ------- null}
h -t 0.260666666666667 -s 3 -d 0 -p cbr -e 1000 -c 0 -i 27 -a 0 -x {3.0 1.0 -1 ------- null}
- -t 0.261333333333333 -s 3 -d 0 -p cbr -e 1000 -c 0 -i 28 -a 0 -x {3.0 1.0 14 ------- null}
h -t 0.261333333333333 -s 3 -d 0 -p cbr -e 1000 -c 0 -i 28 -a 0 -x {3.0 1.0 -1 ------- null}
- -t 0.262 -s 3 -d 0 -p cbr -e 1000 -c 0 -i 29 -a 0 -x {3.0 1.0 15 ------- null}
h -t 0.262 -s 3 -d 0 -p cbr -e 1000 -c 0 -i 29 -a 0 -x {3.0 1.0 -1 ------- null}
r -t 0.301333333333333 -s 0 -d 1 -p cbr -e 1000 -c 0 -i 0 -a 0 -x {2.0 1.0 0 ------- null}
r -t 0.302 -s 0 -d 1 -p cbr -e 1000 -c 0 -i 7 -a 0 -x {3.0 1.0 0 ------- null}
r -t 0.302666666666667 -s 0 -d 1 -p cbr -e 1000 -c 0 -i 1 -a 0 -x {2.0 1.0 1 ------- null}
r -t 0.303333333333333 -s 0 -d 1 -p cbr -e 1000 -c 0 -i 8 -a 0 -x {3.0 1.0 1 ------- null}
r -t 0.304 -s 0 -d 1 -p cbr -e 1000 -c 0 -i 2 -a 0 -x {2.0 1.0 2 ------- null}
r -t 0.304666666666667 -s 0 -d 1 -p cbr -e 1000 -c 0 -i 9 -a 0 -x {3.0 1.0 2 ------- null}
r -t 0.305333333333333 -s 0 -d 1 -p cbr -e 1000 -c 0 -i 3 -a 0 -x {2.0 1.0 3 ------- null}
r -t 0.306 -s 0 -d 1 -p cbr -e 1000 -c 0 -i 10 -a 0 -x {3.0 1.0 3 ------- null}
r -t 0.306666666666667 -s 0 -d 1 -p cbr -e 1000 -c 0 -i 4 -a 0 -x {2.0 1.0 4 ------- null}
r -t 0.307333333333333 -s 3 -d 0 -p cbr -e 1000 -c 0 -i 15 -a 0 -x {3.0 1.0 8 ------- null}
+ -t 0.307333333333333 -s 0 -d 1 -p cbr -e 1000 -c 0 -i 15 -a 0 -x {3.0 1.0 8 ------- null}
- -t 0.307333333333333 -s 0 -d 1 -p cbr -e 1000 -c 0 -i 15 -a 0 -x {3.0 1.0 8 ------- null}
h -t 0.307333333333333 -s 0 -d 1 -p cbr -e 1000 -c 0 -i 15 -a 0 -x {3.0 1.0 -1 ------- null}
r -t 0.307333333333333 -s 0 -d 1 -p cbr -e 1000 -c 0 -i 5 -a 0 -x {2.0 1.0 5 ------- null}
r -t 0.308 -s 3 -d 0 -p cbr -e 1000 -c 0 -i 16 -a 0 -x {3.0 1.0 9 ------- null}
+ -t 0.308 -s 0 -d 1 -p cbr -e 1000 -c 0 -i 16 -a 0 -x {3.0 1.0 9 ------- null}
- -t 0.308 -s 0 -d 1 -p cbr -e 1000 -c 0 -i 16 -a 0 -x {3.0 1.0 9 ------- null}
h -t 0.308 -s 0 -d 1 -p cbr -e 1000 -c 0 -i 16 -a 0 -x {3.0 1.0 -1 ------- null}
r -t 0.308 -s 0 -d 1 -p cbr -e 1000 -c 0 -i 6 -a 0 -x {2.0 1.0 6 ------- null}
r -t 0.308666666666667 -s 3 -d 0 -p cbr -e 1000 -c 0 -i 17 -a 0 -x {3.0 1.0 10 ------- null}
+ -t 0.308666666666667 -s 0 -d 1 -p cbr -e 1000 -c 0 -i 17 -a 0 -x {3.0 1.0 10 ------- null}
- -t 0.308666666666667 -s 0 -d 1 -p cbr -e 1000 -c 0 -i 17 -a 0 -x {3.0 1.0 10 ------- null}
h -t 0.308666666666667 -s 0 -d 1 -p cbr -e 1000 -c 0 -i 17 -a 0 -x {3.0 1.0 -1 ------- null}
r -t 0.309333333333333 -s 3 -d 0 -p cbr -e 1000 -c 0 -i 18 -a 0 -x {3.0 1.0 11 ------- null}
+ -t 0.309333333333333 -s 0 -d 1 -p cbr -e 1000 -c 0 -i 18 -a 0 -x {3.0 1.0 11 ------- null}
- -t 0.309333333333333 -s 0 -d 1 -p cbr -e 1000 -c 0 -i 18 -a 0 -x {3.0 1.0 11 ------- null}
h -t 0.309333333333333 -s 0 -d 1 -p cbr -e 1000 -c 0 -i 18 -a 0 -x {3.0 1.0 -1 ------- null}
+ -t 0.313333333333333 -s 3 -d 0 -p cbr -e 1000 -c 0 -i 30 -a 0 -x {3.0 1.0 16 ------- null}
- -t 0.313333333333333 -s 3 -d 0 -p cbr -e 1000 -c 0 -i 30 -a 0 -x {3.0 1.0 16 ------- null}
h -t 0.313333333333333 -s 3 -d 0 -p cbr -e 1000 -c 0 -i 30 -a 0 -x {3.0 1.0 -1 ------- null}
+ -t 0.313333333333333 -s 3 -d 0 -p cbr -e 1000 -c 0 -i 31 -a 0 -x {3.0 1.0 17 ------- null}
+ -t 0.313333333333333 -s 3 -d 0 -p cbr -e 1000 -c 0 -i 32 -a 0 -x {3.0 1.0 18 ------- null}
+ -t 0.313333333333333 -s 3 -d 0 -p cbr -e 1000 -c 0 -i 33 -a 0 -x {3.0 1.0 19 ------- null}
- -t 0.314 -s 3 -d 0 -p cbr -e 1000 -c 0 -i 31 -a 0 -x {3.0 1.0 17 ------- null}
h -t 0.314 -s 3 -d 0 -p cbr -e 1000 -c 0 -i 31 -a 0 -x {3.0 1.0 -1 ------- null}
- -t 0.314666666666667 -s 3 -d 0 -p cbr -e 1000 -c 0 -i 32 -a 0 -x {3.0 1.0 18 ------- null}
h -t 0.314666666666667 -s 3 -d 0 -p cbr -e 1000 -c 0 -i 32 -a 0 -x {3.0 1.0 -1 ------- null}
- -t 0.315333333333333 -s 3 -d 0 -p cbr -e 1000 -c 0 -i 33 -a 0 -x {3.0 1.0 19 ------- null}
h -t 0.315333333333333 -s 3 -d 0 -p cbr -e 1000 -c 0 -i 33 -a 0 -x {3.0 1.0 -1 ------- null}
r -t 0.340666666666667 -s 2 -d 0 -p cbr -e 1000 -c 0 -i 19 -a 0 -x {2.0 1.0 7 ------- null}
+ -t 0.340666666666667 -s 0 -d 1 -p cbr -e 1000 -c 0 -i 19 -a 0 -x {2.0 1.0 7 ------- null}
- -t 0.340666666666667 -s 0 -d 1 -p cbr -e 1000 -c 0 -i 19 -a 0 -x {2.0 1.0 7 ------- null}
h -t 0.340666666666667 -s 0 -d 1 -p cbr -e 1000 -c 0 -i 19 -a 0 -x {2.0 1.0 -1 ------- null}
r -t 0.341333333333333 -s 2 -d 0 -p cbr -e 1000 -c 0 -i 20 -a 0 -x {2.0 1.0 8 ------- null}
+ -t 0.341333333333333 -s 0 -d 1 -p cbr -e 1000 -c 0 -i 20 -a 0 -x {2.0 1.0 8 ------- null}
- -t 0.341333333333333 -s 0 -d 1 -p cbr -e 1000 -c 0 -i 20 -a 0 -x {2.0 1.0 8 ------- null}
h -t 0.341333333333333 -s 0 -d 1 -p cbr -e 1000 -c 0 -i 20 -a 0 -x {2.0 1.0 -1 ------- null}
r -t 0.342 -s 2 -d 0 -p cbr -e 1000 -c 0 -i 21 -a 0 -x {2.0 1.0 9 ------- null}
+ -t 0.342 -s 0 -d 1 -p cbr -e 1000 -c 0 -i 21 -a 0 -x {2.0 1.0 9 ------- null}
- -t 0.342 -s 0 -d 1 -p cbr -e 1000 -c 0 -i 21 -a 0 -x {2.0 1.0 9 ------- null}
h -t 0.342 -s 0 -d 1 -p cbr -e 1000 -c 0 -i 21 -a 0 -x {2.0 1.0 -1 ------- null}
r -t 0.342666666666667 -s 2 -d 0 -p cbr -e 1000 -c 0 -i 22 -a 0 -x {2.0 1.0 10 ------- null}
+ -t 0.342666666666667 -s 0 -d 1 -p cbr -e 1000 -c 0 -i 22 -a 0 -x {2.0 1.0 10 ------- null}
- -t 0.342666666666667 -s 0 -d 1 -p cbr -e 1000 -c 0 -i 22 -a 0 -x {2.0 1.0 10 ------- null}
h -t 0.342666666666667 -s 0 -d 1 -p cbr -e 1000 -c 0 -i 22 -a 0 -x {2.0 1.0 -1 ------- null}
r -t 0.343333333333333 -s 2 -d 0 -p cbr -e 1000 -c 0 -i 23 -a 0 -x {2.0 1.0 11 ------- null}
+ -t 0.343333333333333 -s 0 -d 1 -p cbr -e 1000 -c 0 -i 23 -a 0 -x {2.0 1.0 11 ------- null}
- -t 0.343333333333333 -s 0 -d 1 -p cbr -e 1000 -c 0 -i 23 -a 0 -x {2.0 1.0 11 ------- null}
h -t 0.343333333333333 -s 0 -d 1 -p cbr -e 1000 -c 0 -i 23 -a 0 -x {2.0 1.0 -1 ------- null}
r -t 0.344 -s 2 -d 0 -p cbr -e 1000 -c 0 -i 24 -a 0 -x {2.0 1.0 12 ------- null}
+ -t 0.344 -s 0 -d 1 -p cbr -e 1000 -c 0 -i 24 -a 0 -x {2.0 1.0 12 ------- null}
- -t 0.344 -s 0 -d 1 -p cbr -e 1000 -c 0 -i 24 -a 0 -x {2.0 1.0 12 ------- null}
h -t 0.344 -s 0 -d 1 -p cbr -e 1000 -c 0 -i 24 -a 0 -x {2.0 1.0 -1 ------- null}
r -t 0.344666666666667 -s 2 -d 0 -p cbr -e 1000 -c 0 -i 25 -a 0 -x {2.0 1.0 13 ------- null}
+ -t 0.344666666666667 -s 0 -d 1 -p cbr -e 1000 -c 0 -i 25 -a 0 -x {2.0 1.0 13 ------- null}
- -t 0.344666666666667 -s 0 -d 1 -p cbr -e 1000 -c 0 -i 25 -a 0 -x {2.0 1.0 13 ------- null}
h -t 0.344666666666667 -s 0 -d 1 -p cbr -e 1000 -c 0 -i 25 -a 0 -x {2.0 1.0 -1 ------- null}
r -t 0.354666666666667 -s 0 -d 1 -p cbr -e 1000 -c 0 -i 11 -a 0 -x {3.0 1.0 4 ------- null}
r -t 0.355333333333333 -s 0 -d 1 -p cbr -e 1000 -c 0 -i 12 -a 0 -x {3.0 1.0 5 ------- null}
r -t 0.356 -s 0 -d 1 -p cbr -e 1000 -c 0 -i 13 -a 0 -x {3.0 1.0 6 ------- null}
r -t 0.356666666666667 -s 0 -d 1 -p cbr -e 1000 -c 0 -i 14 -a 0 -x {3.0 1.0 7 ------- null}
r -t 0.360666666666667 -s 3 -d 0 -p cbr -e 1000 -c 0 -i 26 -a 0 -x {3.0 1.0 12 ------- null}
+ -t 0.360666666666667 -s 0 -d 1 -p cbr -e 1000 -c 0 -i 26 -a 0 -x {3.0 1.0 12 ------- null}
- -t 0.360666666666667 -s 0 -d 1 -p cbr -e 1000 -c 0 -i 26 -a 0 -x {3.0 1.0 12 ------- null}
h -t 0.360666666666667 -s 0 -d 1 -p cbr -e 1000 -c 0 -i 26 -a 0 -x {3.0 1.0 -1 ------- null}
r -t 0.361333333333333 -s 3 -d 0 -p cbr -e 1000 -c 0 -i 27 -a 0 -x {3.0 1.0 13 ------- null}
+ -t 0.361333333333333 -s 0 -d 1 -p cbr -e 1000 -c 0 -i 27 -a 0 -x {3.0 1.0 13 ------- null}
- -t 0.361333333333333 -s 0 -d 1 -p cbr -e 1000 -c 0 -i 27 -a 0 -x {3.0 1.0 13 ------- null}
h -t 0.361333333333333 -s 0 -d 1 -p cbr -e 1000 -c 0 -i 27 -a 0 -x {3.0 1.0 -1 ------- null}
r -t 0.362 -s 3 -d 0 -p cbr -e 1000 -c 0 -i 28 -a 0 -x {3.0 1.0 14 ------- null}
+ -t 0.362 -s 0 -d 1 -p cbr -e 1000 -c 0 -i 28 -a 0 -x {3.0 1.0 14 ------- null}
- -t 0.362 -s 0 -d 1 -p cbr -e 1000 -c 0 -i 28 -a 0 -x {3.0 1.0 14 ------- null}
h -t 0.362 -s 0 -d 1 -p cbr -e 1000 -c 0 -i 28 -a 0 -x {3.0 1.0 -1 ------- null}
r -t 0.362666666666667 -s 3 -d 0 -p cbr -e 1000 -c 0 -i 29 -a 0 -x {3.0 1.0 15 ------- null}
+ -t 0.362666666666667 -s 0 -d 1 -p cbr -e 1000 -c 0 -i 29 -a 0 -x {3.0 1.0 15 ------- null}
- -t 0.362666666666667 -s 0 -d 1 -p cbr -e 1000 -c 0 -i 29 -a 0 -x {3.0 1.0 15 ------- null}
h -t 0.362666666666667 -s 0 -d 1 -p cbr -e 1000 -c 0 -i 29 -a 0 -x {3.0 1.0 -1 ------- null}
+ -t 0.366666666666667 -s 3 -d 0 -p cbr -e 1000 -c 0 -i 34 -a 0 -x {3.0 1.0 20 ------- null}
- -t 0.366666666666667 -s 3 -d 0 -p cbr -e 1000 -c 0 -i 34 -a 0 -x {3.0 1.0 20 ------- null}
h -t 0.366666666666667 -s 3 -d 0 -p cbr -e 1000 -c 0 -i 34 -a 0 -x {3.0 1.0 -1 ------- null}
+ -t 0.366666666666667 -s 3 -d 0 -p cbr -e 1000 -c 0 -i 35 -a 0 -x {3.0 1.0 21 ------- null}
+ -t 0.366666666666667 -s 3 -d 0 -p cbr -e 1000 -c 0 -i 36 -a 0 -x {3.0 1.0 22 ------- null}
+ -t 0.366666666666667 -s 3 -d 0 -p cbr -e 1000 -c 0 -i 37 -a 0 -x {3.0 1.0 23 ------- null}
- -t 0.367333333333333 -s 3 -d 0 -p cbr -e 1000 -c 0 -i 35 -a 0 -x {3.0 1.0 21 ------- null}
h -t 0.367333333333333 -s 3 -d 0 -p cbr -e 1000 -c 0 -i 35 -a 0 -x {3.0 1.0 -1 ------- null}
- -t 0.368 -s 3 -d 0 -p cbr -e 1000 -c 0 -i 36 -a 0 -x {3.0 1.0 22 ------- null}
h -t 0.368 -s 3 -d 0 -p cbr -e 1000 -c 0 -i 36 -a 0 -x {3.0 1.0 -1 ------- null}
- -t 0.368666666666667 -s 3 -d 0 -p cbr -e 1000 -c 0 -i 37 -a 0 -x {3.0 1.0 23 ------- null}
h -t 0.368666666666667 -s 3 -d 0 -p cbr -e 1000 -c 0 -i 37 -a 0 -x {3.0 1.0 -1 ------- null}
+ -t 0.38 -s 2 -d 0 -p cbr -e 1000 -c 0 -i 38 -a 0 -x {2.0 1.0 14 ------- null}
- -t 0.38 -s 2 -d 0 -p cbr -e 1000 -c 0 -i 38 -a 0 -x {2.0 1.0 14 ------- null}
h -t 0.38 -s 2 -d 0 -p cbr -e 1000 -c 0 -i 38 -a 0 -x {2.0 1.0 -1 ------- null}
+ -t 0.38 -s 2 -d 0 -p cbr -e 1000 -c 0 -i 39 -a 0 -x {2.0 1.0 15 ------- null}
+ -t 0.38 -s 2 -d 0 -p cbr -e 1000 -c 0 -i 40 -a 0 -x {2.0 1.0 16 ------- null}
+ -t 0.38 -s 2 -d 0 -p cbr -e 1000 -c 0 -i 41 -a 0 -x {2.0 1.0 17 ------- null}
+ -t 0.38 -s 2 -d 0 -p cbr -e 1000 -c 0 -i 42 -a 0 -x {2.0 1.0 18 ------- null}
+ -t 0.38 -s 2 -d 0 -p cbr -e 1000 -c 0 -i 43 -a 0 -x {2.0 1.0 19 ------- null}
+ -t 0.38 -s 2 -d 0 -p cbr -e 1000 -c 0 -i 44 -a 0 -x {2.0 1.0 20 ------- null}
- -t 0.380666666666667 -s 2 -d 0 -p cbr -e 1000 -c 0 -i 39 -a 0 -x {2.0 1.0 15 ------- null}
h -t 0.380666666666667 -s 2 -d 0 -p cbr -e 1000 -c 0 -i 39 -a 0 -x {2.0 1.0 -1 ------- null}
- -t 0.381333333333333 -s 2 -d 0 -p cbr -e 1000 -c 0 -i 40 -a 0 -x {2.0 1.0 16 ------- null}
h -t 0.381333333333333 -s 2 -d 0 -p cbr -e 1000 -c 0 -i 40 -a 0 -x {2.0 1.0 -1 ------- null}
- -t 0.382 -s 2 -d 0 -p cbr -e 1000 -c 0 -i 41 -a 0 -x {2.0 1.0 17 ------- null}
h -t 0.382 -s 2 -d 0 -p cbr -e 1000 -c 0 -i 41 -a 0 -x {2.0 1.0 -1 ------- null}
- -t 0.382666666666667 -s 2 -d 0 -p cbr -e 1000 -c 0 -i 42 -a 0 -x {2.0 1.0 18 ------- null}
h -t 0.382666666666667 -s 2 -d 0 -p cbr -e 1000 -c 0 -i 42 -a 0 -x {2.0 1.0 -1 ------- null}
- -t 0.383333333333333 -s 2 -d 0 -p cbr -e 1000 -c 0 -i 43 -a 0 -x {2.0 1.0 19 ------- null}
h -t 0.383333333333333 -s 2 -d 0 -p cbr -e 1000 -c 0 -i 43 -a 0 -x {2.0 1.0 -1 ------- null}
- -t 0.384 -s 2 -d 0 -p cbr -e 1000 -c 0 -i 44 -a 0 -x {2.0 1.0 20 ------- null}
h -t 0.384 -s 2 -d 0 -p cbr -e 1000 -c 0 -i 44 -a 0 -x {2.0 1.0 -1 ------- null}
r -t 0.408 -s 0 -d 1 -p cbr -e 1000 -c 0 -i 15 -a 0 -x {3.0 1.0 8 ------- null}
r -t 0.408666666666667 -s 0 -d 1 -p cbr -e 1000 -c 0 -i 16 -a 0 -x {3.0 1.0 9 ------- null}
r -t 0.409333333333333 -s 0 -d 1 -p cbr -e 1000 -c 0 -i 17 -a 0 -x {3.0 1.0 10 ------- null}
r -t 0.41 -s 0 -d 1 -p cbr -e 1000 -c 0 -i 18 -a 0 -x {3.0 1.0 11 ------- null}
r -t 0.414 -s 3 -d 0 -p cbr -e 1000 -c 0 -i 30 -a 0 -x {3.0 1.0 16 ------- null}
+ -t 0.414 -s 0 -d 1 -p cbr -e 1000 -c 0 -i 30 -a 0 -x {3.0 1.0 16 ------- null}
- -t 0.414 -s 0 -d 1 -p cbr -e 1000 -c 0 -i 30 -a 0 -x {3.0 1.0 16 ------- null}
h -t 0.414 -s 0 -d 1 -p cbr -e 1000 -c 0 -i 30 -a 0 -x {3.0 1.0 -1 ------- null}
r -t 0.414666666666667 -s 3 -d 0 -p cbr -e 1000 -c 0 -i 31 -a 0 -x {3.0 1.0 17 ------- null}
+ -t 0.414666666666667 -s 0 -d 1 -p cbr -e 1000 -c 0 -i 31 -a 0 -x {3.0 1.0 17 ------- null}
- -t 0.414666666666667 -s 0 -d 1 -p cbr -e 1000 -c 0 -i 31 -a 0 -x {3.0 1.0 17 ------- null}
h -t 0.414666666666667 -s 0 -d 1 -p cbr -e 1000 -c 0 -i 31 -a 0 -x {3.0 1.0 -1 ------- null}
r -t 0.415333333333333 -s 3 -d 0 -p cbr -e 1000 -c 0 -i 32 -a 0 -x {3.0 1.0 18 ------- null}
+ -t 0.415333333333333 -s 0 -d 1 -p cbr -e 1000 -c 0 -i 32 -a 0 -x {3.0 1.0 18 ------- null}
- -t 0.415333333333333 -s 0 -d 1 -p cbr -e 1000 -c 0 -i 32 -a 0 -x {3.0 1.0 18 ------- null}
h -t 0.415333333333333 -s 0 -d 1 -p cbr -e 1000 -c 0 -i 32 -a 0 -x {3.0 1.0 -1 ------- null}
r -t 0.416 -s 3 -d 0 -p cbr -e 1000 -c 0 -i 33 -a 0 -x {3.0 1.0 19 ------- null}
+ -t 0.416 -s 0 -d 1 -p cbr -e 1000 -c 0 -i 33 -a 0 -x {3.0 1.0 19 ------- null}
- -t 0.416 -s 0 -d 1 -p cbr -e 1000 -c 0 -i 33 -a 0 -x {3.0 1.0 19 ------- null}
h -t 0.416 -s 0 -d 1 -p cbr -e 1000 -c 0 -i 33 -a 0 -x {3.0 1.0 -1 ------- null}
+ -t 0.42 -s 3 -d 0 -p cbr -e 1000 -c 0 -i 45 -a 0 -x {3.0 1.0 24 ------- null}
- -t 0.42 -s 3 -d 0 -p cbr -e 1000 -c 0 -i 45 -a 0 -x {3.0 1.0 24 ------- null}
h -t 0.42 -s 3 -d 0 -p cbr -e 1000 -c 0 -i 45 -a 0 -x {3.0 1.0 -1 ------- null}
+ -t 0.42 -s 3 -d 0 -p cbr -e 1000 -c 0 -i 46 -a 0 -x {3.0 1.0 25 ------- null}
+ -t 0.42 -s 3 -d 0 -p cbr -e 1000 -c 0 -i 47 -a 0 -x {3.0 1.0 26 ------- null}
+ -t 0.42 -s 3 -d 0 -p cbr -e 1000 -c 0 -i 48 -a 0 -x {3.0 1.0 27 ------- null}
- -t 0.420666666666667 -s 3 -d 0 -p cbr -e 1000 -c 0 -i 46 -a 0 -x {3.0 1.0 25 ------- null}
h -t 0.420666666666667 -s 3 -d 0 -p cbr -e 1000 -c 0 -i 46 -a 0 -x {3.0 1.0 -1 ------- null}
- -t 0.421333333333333 -s 3 -d 0 -p cbr -e 1000 -c 0 -i 47 -a 0 -x {3.0 1.0 26 ------- null}
h -t 0.421333333333333 -s 3 -d 0 -p cbr -e 1000 -c 0 -i 47 -a 0 -x {3.0 1.0 -1 ------- null}
- -t 0.422 -s 3 -d 0 -p cbr -e 1000 -c 0 -i 48 -a 0 -x {3.0 1.0 27 ------- null}
h -t 0.422 -s 3 -d 0 -p cbr -e 1000 -c 0 -i 48 -a 0 -x {3.0 1.0 -1 ------- null}
r -t 0.441333333333333 -s 0 -d 1 -p cbr -e 1000 -c 0 -i 19 -a 0 -x {2.0 1.0 7 ------- null}
r -t 0.442 -s 0 -d 1 -p cbr -e 1000 -c 0 -i 20 -a 0 -x {2.0 1.0 8 ------- null}
r -t 0.442666666666667 -s 0 -d 1 -p cbr -e 1000 -c 0 -i 21 -a 0 -x {2.0 1.0 9 ------- null}
r -t 0.443333333333333 -s 0 -d 1 -p cbr -e 1000 -c 0 -i 22 -a 0 -x {2.0 1.0 10 ------- null}
r -t 0.444 -s 0 -d 1 -p cbr -e 1000 -c 0 -i 23 -a 0 -x {2.0 1.0 11 ------- null}
r -t 0.444666666666667 -s 0 -d 1 -p cbr -e 1000 -c 0 -i 24 -a 0 -x {2.0 1.0 12 ------- null}
r -t 0.445333333333333 -s 0 -d 1 -p cbr -e 1000 -c 0 -i 25 -a 0 -x {2.0 1.0 13 ------- null}
r -t 0.461333333333333 -s 0 -d 1 -p cbr -e 1000 -c 0 -i 26 -a 0 -x {3.0 1.0 12 ------- null}
r -t 0.462 -s 0 -d 1 -p cbr -e 1000 -c 0 -i 27 -a 0 -x {3.0 1.0 13 ------- null}
r -t 0.462666666666667 -s 0 -d 1 -p cbr -e 1000 -c 0 -i 28 -a 0 -x {3.0 1.0 14 ------- null}
r -t 0.463333333333333 -s 0 -d 1 -p cbr -e 1000 -c 0 -i 29 -a 0 -x {3.0 1.0 15 ------- null}
r -t 0.467333333333333 -s 3 -d 0 -p cbr -e 1000 -c 0 -i 34 -a 0 -x {3.0 1.0 20 ------- null}
+ -t 0.467333333333333 -s 0 -d 1 -p cbr -e 1000 -c 0 -i 34 -a 0 -x {3.0 1.0 20 ------- null}
- -t 0.467333333333333 -s 0 -d 1 -p cbr -e 1000 -c 0 -i 34 -a 0 -x {3.0 1.0 20 ------- null}
h -t 0.467333333333333 -s 0 -d 1 -p cbr -e 1000 -c 0 -i 34 -a 0 -x {3.0 1.0 -1 ------- null}
r -t 0.468 -s 3 -d 0 -p cbr -e 1000 -c 0 -i 35 -a 0 -x {3.0 1.0 21 ------- null}
+ -t 0.468 -s 0 -d 1 -p cbr -e 1000 -c 0 -i 35 -a 0 -x {3.0 1.0 21 ------- null}
- -t 0.468 -s 0 -d 1 -p cbr -e 1000 -c 0 -i 35 -a 0 -x {3.0 1.0 21 ------- null}
h -t 0.468 -s 0 -d 1 -p cbr -e 1000 -c 0 -i 35 -a 0 -x {3.0 1.0 -1 ------- null}
r -t 0.468666666666667 -s 3 -d 0 -p cbr -e 1000 -c 0 -i 36 -a 0 -x {3.0 1.0 22 ------- null}
+ -t 0.468666666666667 -s 0 -d 1 -p cbr -e 1000 -c 0 -i 36 -a 0 -x {3.0 1.0 22 ------- null}
- -t 0.468666666666667 -s 0 -d 1 -p cbr -e 1000 -c 0 -i 36 -a 0 -x {3.0 1.0 22 ------- null}
h -t 0.468666666666667 -s 0 -d 1 -p cbr -e 1000 -c 0 -i 36 -a 0 -x {3.0 1.0 -1 ------- null}
r -t 0.469333333333333 -s 3 -d 0 -p cbr -e 1000 -c 0 -i 37 -a 0 -x {3.0 1.0 23 ------- null}
+ -t 0.469333333333333 -s 0 -d 1 -p cbr -e 1000 -c 0 -i 37 -a 0 -x {3.0 1.0 23 ------- null}
- -t 0.469333333333333 -s 0 -d 1 -p cbr -e 1000 -c 0 -i 37 -a 0 -x {3.0 1.0 23 ------- null}
h -t 0.469333333333333 -s 0 -d 1 -p cbr -e 1000 -c 0 -i 37 -a 0 -x {3.0 1.0 -1 ------- null}
+ -t 0.473333333333333 -s 3 -d 0 -p cbr -e 1000 -c 0 -i 49 -a 0 -x {3.0 1.0 28 ------- null}
- -t 0.473333333333333 -s 3 -d 0 -p cbr -e 1000 -c 0 -i 49 -a 0 -x {3.0 1.0 28 ------- null}
h -t 0.473333333333333 -s 3 -d 0 -p cbr -e 1000 -c 0 -i 49 -a 0 -x {3.0 1.0 -1 ------- null}
+ -t 0.473333333333333 -s 3 -d 0 -p cbr -e 1000 -c 0 -i 50 -a 0 -x {3.0 1.0 29 ------- null}
+ -t 0.473333333333333 -s 3 -d 0 -p cbr -e 1000 -c 0 -i 51 -a 0 -x {3.0 1.0 30 ------- null}
+ -t 0.473333333333333 -s 3 -d 0 -p cbr -e 1000 -c 0 -i 52 -a 0 -x {3.0 1.0 31 ------- null}